                         Program Version 4.0.1.2 - RELEASE -
|  1> # avogadro generated ORCA input file
|  2> # Basic Mode
|  3> #
|  4> ! B3LYP def2-TZVP Opt
|  5> %pal nprocs 4 end
|  6>
|  7> * xyz 0 1
|  8>    C       -4.42246       -4.13954        0.47354
|  9>    C       -1.92923       -4.12800        0.42854
| 10>    C       -5.39332       -3.17365        0.38965
| 11>    C       -3.20217       -3.45419        0.38538
| 12>    C        0.57100       -4.17834        0.37896
| 13>    C       -0.70422       -3.49096        0.33882
| 14>    H       -4.59443       -5.21928        0.58515
| 15>    C        1.58947       -3.17179        0.27765
| 16>    C       -4.71918       -1.94442        0.25400
| 17>    H       -2.00521       -5.21438        0.53710
| 18>    N       -3.35203       -2.10271        0.24999
| 19>    H        0.72401       -5.25884        0.49693
| 20>   Ni       -1.94929       -0.70752        0.08035
| 21>    C        0.83825       -1.98235        0.14669
| 22>    N       -0.52699       -2.12229        0.19903
| 23>    C       -5.37805       -0.77426        0.14033
| 24>    H       -6.47454       -3.35182        0.42360
| 25>    C        1.52381       -0.85686       -0.00030
| 26>    C       -4.71509        0.53880       -0.00340
| 27>    N       -3.35897        0.71091       -0.03898
| 28>    C        0.81733        0.49556       -0.10204
| 29>    C       -5.42223        1.76417       -0.12492
| 30>    N       -0.55828        0.67239       -0.08751
| 31>    H       -6.47077       -0.78093        0.15481
| 32>    C       -3.23182        2.06704       -0.18733
| 33>    C       -0.75210        2.04348       -0.23139
| 34>    C        1.43220        1.73393       -0.25697
| 35>    C       -4.46948        2.75166       -0.24354
| 36>    C       -1.95819        2.72045       -0.28187
| 37>    C        0.48354        2.69731       -0.33167
| 38>    H       -6.51139        1.94020       -0.12896
| 39>    H        2.38410        2.03606       -0.31564
| 40>    H       -4.68935        3.83884       -0.35797
| 41>    H       -2.00696        3.81321       -0.40215
| 42>    H        0.67593        3.76863       -0.44374
| 43>    C        5.72174        4.48410        1.96999
| 44>    C        4.50816        3.80523        1.99923
| 45>    C        4.45849        2.38815        2.20397
| 46>    C        5.72188        1.64087        2.16888
| 47>    C        6.91337        2.42209        2.32777
| 48>    C        6.89657        3.81158        2.21269
| 49>    C        3.34518        4.57116        1.86448
| 50>    C        2.09838        3.99975        2.00359
| 51>    C        1.98355        2.66567        2.37989
| 52>    C        3.14612        1.84862        2.52103
| 53>    H        7.81296        4.38744        2.28445
| 54>    H        5.75686        5.56136        1.84909
| 55>    H        3.40026        5.63656        1.67046
| 56>    H        1.21943        4.62612        1.89656
| 57>    C        8.13968        1.82625        2.61269
| 58>    C        8.23946        0.46231        2.75127
| 59>    C        7.16057       -0.35752        2.43392
| 60>    C        5.91155        0.19052        2.00532
| 61>    H        9.02638        2.42792        2.78063
| 62>    H        9.19778        0.04001        3.03365
| 63>    C        4.99478       -0.76844        1.37628
| 64>    C        5.21648       -2.17157        1.51494
| 65>    C        6.38462       -2.62249        2.13445
| 66>    C        7.36394       -1.73424        2.51968
| 67>    H        6.59489       -3.67929        2.23867
| 68>    H        8.30127       -2.13542        2.88985
| 69>    C        0.69964        2.15230        2.64169
| 70>    C        0.54060        0.85243        3.10317
| 71>    C        1.65917        0.06584        3.33969
| 72>    C        2.93742        0.55658        3.06706
| 73>    H       -0.18290        2.76709        2.50213
| 74>    H       -0.44862        0.46846        3.31438
| 75>    H        1.53874       -0.93007        3.74631
| 76>    H        3.74816       -0.09261        3.33053
| 77>    C        3.91769       -0.41408        0.54472
| 78>    C        2.96266       -1.30219        0.12932
| 79>    C        3.07819       -2.67164        0.36083
| 80>    C        4.28292       -3.14096        1.00426
| 81>    O        4.52897       -4.45082        1.23628
| 82>    C        3.74950       -5.49620        0.80007
| 83>    H        2.74309       -5.42981        1.25491
| 84>    H        4.21479       -6.45073        1.11852
| 85>    H        3.67509       -5.49104       -0.30868
| 86>    O        3.80281        0.80038        0.15345
| 87>    C        4.50577        1.44440       -0.85292
| 88>    H        5.53599        1.50287       -0.52747
| 89>    H        4.40220        0.89174       -1.80187
| 90>    H        4.13421        2.50007       -1.03420
| 91> *
| 92>
| 93>
| 94>                          ****END OF INPUT****
 Total Charge           Charge          ....    0
 Multiplicity           Mult            ....    1
 Number of Electrons    NEL             ....  388
FINAL SINGLE POINT ENERGY     -3723.097916588295
FINAL SINGLE POINT ENERGY     -3723.153577071857
FINAL SINGLE POINT ENERGY     -3723.193378248683
FINAL SINGLE POINT ENERGY     -3723.214145107288
FINAL SINGLE POINT ENERGY     -3723.224029084342
FINAL SINGLE POINT ENERGY     -3723.230311387723
FINAL SINGLE POINT ENERGY     -3723.234129159181
FINAL SINGLE POINT ENERGY     -3723.236380676897
FINAL SINGLE POINT ENERGY     -3723.237665640782
FINAL SINGLE POINT ENERGY     -3723.238510738503
FINAL SINGLE POINT ENERGY     -3723.243377127261
FINAL SINGLE POINT ENERGY     -3723.243625313241
FINAL SINGLE POINT ENERGY     -3723.244200500700
FINAL SINGLE POINT ENERGY     -3723.244614906140
FINAL SINGLE POINT ENERGY     -3723.244730718998
FINAL SINGLE POINT ENERGY     -3723.244793566296
FINAL SINGLE POINT ENERGY     -3723.244825072702
FINAL SINGLE POINT ENERGY     -3723.244836882341
FINAL SINGLE POINT ENERGY     -3723.244837491849
                    ***********************HURRAY********************

CARTESIAN COORDINATES (ANGSTROEM)
---------------------------------
  C     -4.473073   -4.494651   -0.264213
  C     -2.163505   -4.125201    0.582092
  C     -5.392010   -3.712477   -0.884131
  C     -3.339217   -3.662044    0.014562
  C      0.247343   -3.789839    1.212992
  C     -1.044715   -3.342398    0.740337
  H     -4.536090   -5.543803   -0.020605
  C      1.067896   -2.703747    1.127175
  C     -4.827068   -2.396590   -0.963615
  H     -2.114354   -5.165562    0.873927
  N     -3.570468   -2.376415   -0.413215
  H      0.458122   -4.790130    1.556484
  Ni    -2.363505   -0.830494   -0.268048
  C      0.261553   -1.632931    0.637312
  N     -1.006791   -2.000708    0.402337
  C     -5.485271   -1.299194   -1.484809
  H     -6.369835   -3.982771   -1.250815
  C      0.955987   -0.428295    0.581310
  C     -4.985919   -0.015962   -1.459894
  N     -3.758189    0.349141   -0.961404
  C      0.251401    0.738062    0.299953
  C     -5.717956    1.143947   -1.889330
  N     -1.088297    0.713626   -0.069415
  H     -6.473823   -1.451342   -1.896935
  C     -3.718659    1.713409   -1.052751
  C     -1.439800    2.029980   -0.223686
  C      0.713916    2.096377    0.399722
  C     -4.937807    2.218658   -1.623770
  C     -2.653645    2.505237   -0.672293
  C     -0.332678    2.891527    0.084911
  H     -6.706276    1.118431   -2.320739
  H      1.709181    2.373571    0.692594
  H     -5.147219    3.262904   -1.796923
  H     -2.765371    3.577388   -0.767270
  H     -0.369316    3.969647    0.052476
  C      6.207547    4.397190    1.598557
  C      5.063323    3.827334    2.218344
  C      5.026553    2.444038    2.516999
  C      6.049261    1.598239    1.940427
  C      7.261820    2.227997    1.541834
  C      7.307585    3.635968    1.359551
  C      3.968214    4.670080    2.575318
  C      2.917367    4.195286    3.287707
  C      2.942842    2.867261    3.805268
  C      4.019927    1.996449    3.465716
  H      8.226934    4.081332    0.998365
  H      6.213248    5.461790    1.395750
  H      3.999973    5.707247    2.262350
  H      2.080050    4.836401    3.537681
  C      8.437712    1.454539    1.344292
  C      8.418739    0.111868    1.547321
  C      7.184346   -0.566370    1.736784
  C      5.962303    0.159792    1.751615
  H      9.357634    1.966980    1.088757
  H      9.329807   -0.473078    1.503606
  C      4.742225   -0.599164    1.539075
  C      4.773942   -2.007732    1.759246
  C      6.009913   -2.665895    1.997017
  C      7.177199   -1.978035    1.898492
  H      6.000660   -3.728665    2.192541
  H      8.128765   -2.491648    1.968678
  C      1.951271    2.439467    4.714526
  C      2.039270    1.219972    5.339729
  C      3.148785    0.398003    5.087771
  C      4.107092    0.776895    4.175654
  H      1.128350    3.110408    4.932536
  H      1.277126    0.907540    6.042920
  H      3.257963   -0.539394    5.618960
  H      4.960487    0.134852    4.025282
  C      3.523118   -0.028700    1.032830
  C      2.355391   -0.759401    0.993814
  C      2.398138   -2.161137    1.334205
  C      3.575185   -2.770001    1.663916
  O      3.620732   -4.121136    1.922890
  C      3.693744   -4.958742    0.766281
  H      2.836742   -4.799907    0.106989
  H      3.689424   -5.985417    1.129359
  H      4.616773   -4.774457    0.207738
  O      3.536920    1.250411    0.535010
  C      4.006841    1.359406   -0.811344
  H      5.037837    1.007341   -0.898261
  H      3.367157    0.790454   -1.491495
  H      3.963552    2.416247   -1.067174

 Multiplicity           Mult            ....    1
 Number of Electrons    NEL             ....  388
 Basis Dimension        Dim             .... 1887

ORBITAL ENERGIES
----------------

  NO   OCC          E(Eh)            E(eV)
   0   2.0000    -299.843469     -8159.1556
   1   2.0000     -35.775575      -973.5029
   2   2.0000     -31.211865      -849.3180
   3   2.0000     -31.210128      -849.2707
   4   2.0000     -31.176972      -848.3685
   5   2.0000     -19.145006      -520.9621
   6   2.0000     -19.140221      -520.8319
   7   2.0000     -14.329800      -389.9337
   8   2.0000     -14.328520      -389.8988
   9   2.0000     -14.326349      -389.8398
  10   2.0000     -14.324832      -389.7985
  11   2.0000     -10.232744      -278.4471
  12   2.0000     -10.229109      -278.3482
  13   2.0000     -10.220258      -278.1074
  14   2.0000     -10.215610      -277.9809
  15   2.0000     -10.210372      -277.8384
  16   2.0000     -10.208835      -277.7965
  17   2.0000     -10.206023      -277.7200
  18   2.0000     -10.206012      -277.7197
  19   2.0000     -10.205447      -277.7043
  20   2.0000     -10.205209      -277.6979
  21   2.0000     -10.203693      -277.6566
  22   2.0000     -10.195563      -277.4354
  23   2.0000     -10.194409      -277.4040
  24   2.0000     -10.193415      -277.3769
  25   2.0000     -10.192016      -277.3388
  26   2.0000     -10.191809      -277.3332
  27   2.0000     -10.190872      -277.3077
  28   2.0000     -10.189007      -277.2570
  29   2.0000     -10.187356      -277.2120
  30   2.0000     -10.187062      -277.2040
  31   2.0000     -10.185014      -277.1483
  32   2.0000     -10.184530      -277.1351
  33   2.0000     -10.181621      -277.0560
  34   2.0000     -10.181491      -277.0525
  35   2.0000     -10.181183      -277.0441
  36   2.0000     -10.179772      -277.0057
  37   2.0000     -10.179531      -276.9991
  38   2.0000     -10.178176      -276.9623
  39   2.0000     -10.177047      -276.9315
  40   2.0000     -10.176961      -276.9292
  41   2.0000     -10.176082      -276.9053
  42   2.0000     -10.175965      -276.9021
  43   2.0000     -10.175013      -276.8762
  44   2.0000     -10.174689      -276.8674
  45   2.0000     -10.173430      -276.8331
  46   2.0000     -10.173330      -276.8304
  47   2.0000     -10.172636      -276.8115
  48   2.0000     -10.172298      -276.8023
  49   2.0000     -10.172169      -276.7988
  50   2.0000     -10.171315      -276.7755
  51   2.0000     -10.171203      -276.7725
  52   2.0000     -10.170218      -276.7457
  53   2.0000     -10.167740      -276.6783
  54   2.0000     -10.167395      -276.6689
  55   2.0000     -10.166581      -276.6467
  56   2.0000     -10.165596      -276.6199
  57   2.0000     -10.164961      -276.6026
  58   2.0000     -10.162300      -276.5302
  59   2.0000      -4.009875      -109.1142
  60   2.0000      -2.616113       -71.1881
  61   2.0000      -2.613351       -71.1129
  62   2.0000      -2.559686       -69.6526
  63   2.0000      -1.056277       -28.7428
  64   2.0000      -1.055103       -28.7108
  65   2.0000      -0.973775       -26.4978
  66   2.0000      -0.963718       -26.2241
  67   2.0000      -0.957568       -26.0568
  68   2.0000      -0.948424       -25.8079
  69   2.0000      -0.893684       -24.3184
  70   2.0000      -0.879158       -23.9231
  71   2.0000      -0.867033       -23.5932
  72   2.0000      -0.849661       -23.1204
  73   2.0000      -0.828201       -22.5365
  74   2.0000      -0.815929       -22.2025
  75   2.0000      -0.803831       -21.8734
  76   2.0000      -0.795062       -21.6347
  77   2.0000      -0.790333       -21.5061
  78   2.0000      -0.788200       -21.4480
  79   2.0000      -0.781092       -21.2546
  80   2.0000      -0.774549       -21.0766
  81   2.0000      -0.769367       -20.9355
  82   2.0000      -0.765828       -20.8393
  83   2.0000      -0.762262       -20.7422
  84   2.0000      -0.755512       -20.5585
  85   2.0000      -0.747594       -20.3431
  86   2.0000      -0.739328       -20.1181
  87   2.0000      -0.729420       -19.8485
  88   2.0000      -0.720293       -19.6002
  89   2.0000      -0.715445       -19.4683
  90   2.0000      -0.706798       -19.2330
  91   2.0000      -0.702883       -19.1264
  92   2.0000      -0.675230       -18.3739
  93   2.0000      -0.664058       -18.0699
  94   2.0000      -0.658122       -17.9084
  95   2.0000      -0.640731       -17.4352
  96   2.0000      -0.638563       -17.3762
  97   2.0000      -0.621216       -16.9042
  98   2.0000      -0.619566       -16.8592
  99   2.0000      -0.609316       -16.5803
 100   2.0000      -0.601332       -16.3631
 101   2.0000      -0.591599       -16.0982
 102   2.0000      -0.582321       -15.8458
 103   2.0000      -0.575843       -15.6695
 104   2.0000      -0.574218       -15.6253
 105   2.0000      -0.567175       -15.4336
 106   2.0000      -0.560439       -15.2503
 107   2.0000      -0.557966       -15.1830
 108   2.0000      -0.548311       -14.9203
 109   2.0000      -0.545426       -14.8418
 110   2.0000      -0.535338       -14.5673
 111   2.0000      -0.530777       -14.4432
 112   2.0000      -0.524499       -14.2723
 113   2.0000      -0.519721       -14.1423
 114   2.0000      -0.518372       -14.1056
 115   2.0000      -0.515931       -14.0392
 116   2.0000      -0.507206       -13.8018
 117   2.0000      -0.500599       -13.6220
 118   2.0000      -0.499323       -13.5873
 119   2.0000      -0.497195       -13.5294
 120   2.0000      -0.491894       -13.3851
 121   2.0000      -0.477654       -12.9976
 122   2.0000      -0.472311       -12.8522
 123   2.0000      -0.471338       -12.8258
 124   2.0000      -0.469545       -12.7770
 125   2.0000      -0.462022       -12.5723
 126   2.0000      -0.457182       -12.4406
 127   2.0000      -0.451342       -12.2816
 128   2.0000      -0.446405       -12.1473
 129   2.0000      -0.443588       -12.0706
 130   2.0000      -0.440033       -11.9739
 131   2.0000      -0.438702       -11.9377
 132   2.0000      -0.437136       -11.8951
 133   2.0000      -0.429316       -11.6823
 134   2.0000      -0.427628       -11.6363
 135   2.0000      -0.426978       -11.6187
 136   2.0000      -0.424587       -11.5536
 137   2.0000      -0.423914       -11.5353
 138   2.0000      -0.422258       -11.4902
 139   2.0000      -0.419870       -11.4253
 140   2.0000      -0.418906       -11.3990
 141   2.0000      -0.416593       -11.3361
 142   2.0000      -0.409617       -11.1463
 143   2.0000      -0.406474       -11.0607
 144   2.0000      -0.403859       -10.9896
 145   2.0000      -0.402321       -10.9477
 146   2.0000      -0.400060       -10.8862
 147   2.0000      -0.397393       -10.8136
 148   2.0000      -0.396819       -10.7980
 149   2.0000      -0.395735       -10.7685
 150   2.0000      -0.393374       -10.7042
 151   2.0000      -0.388781       -10.5793
 152   2.0000      -0.387373       -10.5410
 153   2.0000      -0.385532       -10.4909
 154   2.0000      -0.377008       -10.2589
 155   2.0000      -0.373680       -10.1683
 156   2.0000      -0.371458       -10.1079
 157   2.0000      -0.370500       -10.0818
 158   2.0000      -0.365905        -9.9568
 159   2.0000      -0.362196        -9.8558
 160   2.0000      -0.358390        -9.7523
 161   2.0000      -0.356223        -9.6933
 162   2.0000      -0.354226        -9.6390
 163   2.0000      -0.348578        -9.4853
 164   2.0000      -0.345247        -9.3947
 165   2.0000      -0.340014        -9.2523
 166   2.0000      -0.335540        -9.1305
 167   2.0000      -0.326666        -8.8890
 168   2.0000      -0.324287        -8.8243
 169   2.0000      -0.323840        -8.8121
 170   2.0000      -0.321507        -8.7486
 171   2.0000      -0.316362        -8.6086
 172   2.0000      -0.300934        -8.1888
 173   2.0000      -0.298592        -8.1251
 174   2.0000      -0.295982        -8.0541
 175   2.0000      -0.291159        -7.9228
 176   2.0000      -0.288176        -7.8417
 177   2.0000      -0.286780        -7.8037
 178   2.0000      -0.282777        -7.6947
 179   2.0000      -0.282143        -7.6775
 180   2.0000      -0.275057        -7.4847
 181   2.0000      -0.272625        -7.4185
 182   2.0000      -0.262665        -7.1475
 183   2.0000      -0.256114        -6.9692
 184   2.0000      -0.250274        -6.8103
 185   2.0000      -0.236952        -6.4478
 186   2.0000      -0.234966        -6.3937
 187   2.0000      -0.233049        -6.3416
 188   2.0000      -0.229498        -6.2450
 189   2.0000      -0.217465        -5.9175
 190   2.0000      -0.212733        -5.7888
 191   2.0000      -0.206390        -5.6162
 192   2.0000      -0.194237        -5.2855
 193   2.0000      -0.189108        -5.1459
 194   0.0000      -0.096909        -2.6370
 195   0.0000      -0.085812        -2.3351
 196   0.0000      -0.061604        -1.6763
 197   0.0000      -0.059024        -1.6061
 198   0.0000      -0.056188        -1.5290

MULLIKEN ATOMIC CHARGES
-----------------------
   0 C :   -0.200796
   1 C :   -0.328143
   2 C :   -0.181449
   3 C :    0.266930
   4 C :   -0.298840
   5 C :    0.346325
   6 H :    0.105910
   7 C :    0.089050
   8 C :    0.230087
   9 H :    0.103851
  10 N :   -0.108262
  11 H :    0.115537
  12 Ni:   -0.150818
  13 C :    0.260039
  14 N :   -0.064237
  15 C :   -0.269659
  16 H :    0.103082
  17 C :   -0.145895
  18 C :    0.206900
  19 N :   -0.097551
  20 C :    0.138020
  21 C :   -0.158035
  22 N :   -0.190994
  23 H :    0.098180
  24 C :    0.250856
  25 C :    0.260120
  26 C :   -0.202146
  27 C :   -0.209694
  28 C :   -0.359756
  29 C :   -0.211567
  30 H :    0.099942
  31 H :    0.190957
  32 H :    0.121008
  33 H :    0.121489
  34 H :    0.110122
  35 C :   -0.192324
  36 C :    0.110698
  37 C :    0.175821
  38 C :    0.024513
  39 C :    0.167338
  40 C :   -0.154108
  41 C :   -0.139195
  42 C :   -0.245127
  43 C :    0.121882
  44 C :    0.051306
  45 H :    0.096529
  46 H :    0.100865
  47 H :    0.092568
  48 H :    0.092902
  49 C :   -0.149581
  50 C :   -0.210439
  51 C :    0.188705
  52 C :   -0.138770
  53 H :    0.094378
  54 H :    0.103363
  55 C :   -0.118002
  56 C :    0.142096
  57 C :   -0.254479
  58 C :   -0.164101
  59 H :    0.130537
  60 H :    0.106596
  61 C :   -0.143267
  62 C :   -0.106402
  63 C :   -0.146510
  64 C :   -0.170042
  65 H :    0.097954
  66 H :    0.110769
  67 H :    0.101102
  68 H :    0.144846
  69 C :    0.194250
  70 C :    0.114683
  71 C :   -0.099058
  72 C :    0.202827
  73 O :   -0.334108
  74 C :   -0.205676
  75 H :    0.133947
  76 H :    0.125979
  77 H :    0.122830
  78 O :   -0.409922
  79 C :   -0.188026
  80 H :    0.128817
  81 H :    0.127992
  82 H :    0.122477
Sum of atomic charges:   -0.0000000

LOEWDIN ATOMIC CHARGES
----------------------
   0 C :   -0.112483
   1 C :   -0.080613
   2 C :   -0.111629
   3 C :   -0.186814
   4 C :   -0.067799
   5 C :   -0.173455
   6 H :    0.139029
   7 C :   -0.061349
   8 C :   -0.190438
   9 H :    0.157361
  10 N :    0.229232
  11 H :    0.140638
  12 Ni:    0.067696
  13 C :   -0.120701
  14 N :    0.232952
  15 C :   -0.080354
  16 H :    0.138567
  17 C :   -0.021826
  18 C :   -0.189335
  19 N :    0.223887
  20 C :   -0.136092
  21 C :   -0.106272
  22 N :    0.223946
  23 H :    0.157250
  24 C :   -0.189236
  25 C :   -0.191773
  26 C :   -0.098616
  27 C :   -0.111744
  28 C :   -0.088250
  29 C :   -0.110248
  30 H :    0.138477
  31 H :    0.148817
  32 H :    0.139937
  33 H :    0.159284
  34 H :    0.140137
  35 C :   -0.105660
  36 C :   -0.090518
  37 C :   -0.004653
  38 C :   -0.005796
  39 C :   -0.089027
  40 C :   -0.107264
  41 C :   -0.107350
  42 C :   -0.103622
  43 C :   -0.089688
  44 C :   -0.046076
  45 H :    0.145641
  46 H :    0.146125
  47 H :    0.145299
  48 H :    0.146029
  49 C :   -0.102709
  50 C :   -0.107048
  51 C :   -0.090126
  52 C :   -0.017130
  53 H :    0.146554
  54 H :    0.146883
  55 C :   -0.027579
  56 C :   -0.066394
  57 C :   -0.099501
  58 C :   -0.104566
  59 H :    0.152244
  60 H :    0.147365
  61 C :   -0.102004
  62 C :   -0.139691
  63 C :   -0.138523
  64 C :   -0.085259
  65 H :    0.145610
  66 H :    0.142628
  67 H :    0.143456
  68 H :    0.158266
  69 C :   -0.180609
  70 C :   -0.007561
  71 C :   -0.039762
  72 C :   -0.180320
  73 O :    0.211299
  74 C :   -0.320410
  75 H :    0.107957
  76 H :    0.111084
  77 H :    0.105069
  78 O :    0.230507
  79 C :   -0.314262
  80 H :    0.110767
  81 H :    0.108698
  82 H :    0.113444

  Mayer bond orders larger than 0.1
B(  0-C ,  2-C ) :   1.6152 B(  0-C ,  3-C ) :   1.1240 B(  0-C ,  6-H ) :   0.9899
B(  1-C ,  3-C ) :   1.2870 B(  1-C ,  5-C ) :   1.3282 B(  1-C ,  9-H ) :   1.0012
B(  2-C ,  8-C ) :   1.1353 B(  2-C , 16-H ) :   0.9835 B(  3-C , 10-N ) :   1.2375
B(  4-C ,  5-C ) :   1.0941 B(  4-C ,  7-C ) :   1.5081 B(  4-C , 11-H ) :   0.9890
B(  5-C , 14-N ) :   1.1686 B(  7-C , 13-C ) :   1.1030 B(  7-C , 70-C ) :  -0.1043
B(  7-C , 71-C ) :   1.1691 B(  8-C , 10-N ) :   1.2606 B(  8-C , 15-C ) :   1.2913
B( 10-N , 12-Ni) :   0.7139 B( 12-Ni, 14-N ) :   0.7289 B( 12-Ni, 19-N ) :   0.7045
B( 12-Ni, 22-N ) :   0.6804 B( 13-C , 14-N ) :   1.3308 B( 13-C , 17-C ) :   1.1943
B( 13-C , 70-C ) :  -0.1125 B( 15-C , 18-C ) :   1.3344 B( 15-C , 23-H ) :   0.9897
B( 17-C , 20-C ) :   1.3439 B( 17-C , 70-C ) :   1.0797 B( 18-C , 19-N ) :   1.2478
B( 18-C , 21-C ) :   1.1242 B( 19-N , 24-C ) :   1.2596 B( 20-C , 22-N ) :   1.2068
B( 20-C , 26-C ) :   1.2208 B( 21-C , 27-C ) :   1.6450 B( 21-C , 30-H ) :   0.9757
B( 22-N , 25-C ) :   1.3034 B( 24-C , 27-C ) :   1.1422 B( 24-C , 28-C ) :   1.2993
B( 25-C , 28-C ) :   1.3282 B( 25-C , 29-C ) :   1.0699 B( 26-C , 29-C ) :   1.6656
B( 26-C , 31-H ) :   0.9099 B( 27-C , 32-H ) :   0.9765 B( 28-C , 33-H ) :   0.9815
B( 29-C , 34-H ) :   1.0053 B( 35-C , 36-C ) :   1.1782 B( 35-C , 40-C ) :   1.5921
B( 35-C , 46-H ) :   0.9806 B( 36-C , 37-C ) :   1.3281 B( 36-C , 41-C ) :   1.1396
B( 37-C , 38-C ) :   1.0920 B( 37-C , 44-C ) :   0.9783 B( 38-C , 39-C ) :   1.3031
B( 38-C , 52-C ) :   1.1297 B( 38-C , 55-C ) :  -0.1271 B( 39-C , 40-C ) :   1.2115
B( 39-C , 49-C ) :   1.1755 B( 40-C , 45-H ) :   0.9580 B( 41-C , 42-C ) :   1.6165
B( 41-C , 47-H ) :   0.9837 B( 42-C , 43-C ) :   1.1577 B( 42-C , 48-H ) :   0.9823
B( 43-C , 44-C ) :   1.2631 B( 43-C , 61-C ) :   1.2720 B( 44-C , 64-C ) :   1.2883
B( 49-C , 50-C ) :   1.5727 B( 49-C , 53-H ) :   0.9774 B( 50-C , 51-C ) :   1.1782
B( 50-C , 54-H ) :   0.9907 B( 51-C , 52-C ) :   1.3194 B( 51-C , 58-C ) :   1.1640
B( 52-C , 55-C ) :   1.0565 B( 55-C , 56-C ) :   1.2529 B( 55-C , 69-C ) :   1.2330
B( 56-C , 57-C ) :   1.1937 B( 56-C , 72-C ) :   1.2035 B( 57-C , 58-C ) :   1.5377
B( 57-C , 59-H ) :   0.9830 B( 58-C , 60-H ) :   0.9945 B( 61-C , 62-C ) :   1.4865
B( 61-C , 65-H ) :   0.9768 B( 62-C , 63-C ) :   1.2622 B( 62-C , 66-H ) :   0.9783
B( 63-C , 64-C ) :   1.5155 B( 63-C , 67-H ) :   0.9871 B( 64-C , 68-H ) :   0.9458
B( 69-C , 70-C ) :   1.4590 B( 69-C , 78-O ) :   0.8001 B( 70-C , 71-C ) :   1.1208
B( 71-C , 72-C ) :   1.4747 B( 72-C , 73-O ) :   1.1324 B( 73-O , 74-C ) :   0.8996
B( 74-C , 75-H ) :   0.9706 B( 74-C , 76-H ) :   0.9767 B( 74-C , 77-H ) :   0.9673
B( 78-O , 79-C ) :   0.9149 B( 79-C , 80-H ) :   0.9710 B( 79-C , 81-H ) :   0.9707
B( 79-C , 82-H ) :   0.9744

FINAL SINGLE POINT ENERGY     -3723.244843762234

DIPOLE MOMENT
-------------
                                X             Y             Z
Electronic contribution:    -27.53255      -5.64783      -5.37780
Nuclear contribution   :     27.68000       5.48074       4.57151
                        -----------------------------------------
Total Dipole Moment    :      0.14745      -0.16709      -0.80629
                        -----------------------------------------
Magnitude (a.u.)       :      0.83652
Magnitude (Debye)      :      2.12627

                             ****ORCA TERMINATED NORMALLY****
TOTAL RUN TIME: 16 days 14 hours 32 minutes 29 seconds 552 msec
